+ 0.05 0 1 tcp 40 ------- 0 0.0 3.0 0 0
- 0.05 0 1 tcp 40 ------- 0 0.0 3.0 0 0
r 0.06032 0 1 tcp 40 ------- 0 0.0 3.0 0 0
+ 0.06032 1 2 tcp 40 ------- 0 0.0 3.0 0 0
- 0.06032 1 2 tcp 40 ------- 0 0.0 3.0 0 0
r 0.07064 1 2 tcp 40 ------- 0 0.0 3.0 0 0
+ 0.07064 2 3 tcp 40 ------- 0 0.0 3.0 0 0
- 0.07064 2 3 tcp 40 ------- 0 0.0 3.0 0 0
r 0.08096 2 3 tcp 40 ------- 0 0.0 3.0 0 0
+ 0.08096 3 2 ack 40 ------- 0 3.0 0.0 0 1
- 0.08096 3 2 ack 40 ------- 0 3.0 0.0 0 1
r 0.09128 3 2 ack 40 ------- 0 3.0 0.0 0 1
+ 0.09128 2 1 ack 40 ------- 0 3.0 0.0 0 1
- 0.09128 2 1 ack 40 ------- 0 3.0 0.0 0 1
r 0.1016 2 1 ack 40 ------- 0 3.0 0.0 0 1
+ 0.1016 1 0 ack 40 ------- 0 3.0 0.0 0 1
- 0.1016 1 0 ack 40 ------- 0 3.0 0.0 0 1
r 0.11192 1 0 ack 40 ------- 0 3.0 0.0 0 1
+ 0.11192 0 1 tcp 1040 ------- 0 0.0 3.0 1 2
- 0.11192 0 1 tcp 1040 ------- 0 0.0 3.0 1 2
+ 0.11192 0 1 tcp 1040 ------- 0 0.0 3.0 2 3
- 0.12024 0 1 tcp 1040 ------- 0 0.0 3.0 2 3
r 0.13024 0 1 tcp 1040 ------- 0 0.0 3.0 1 2
+ 0.13024 1 2 tcp 1040 ------- 0 0.0 3.0 1 2
- 0.13024 1 2 tcp 1040 ------- 0 0.0 3.0 1 2
r 0.13856 0 1 tcp 1040 ------- 0 0.0 3.0 2 3
+ 0.13856 1 2 tcp 1040 ------- 0 0.0 3.0 2 3
- 0.13856 1 2 tcp 1040 ------- 0 0.0 3.0 2 3
r 0.14856 1 2 tcp 1040 ------- 0 0.0 3.0 1 2
+ 0.14856 2 3 tcp 1040 ------- 0 0.0 3.0 1 2
- 0.14856 2 3 tcp 1040 ------- 0 0.0 3.0 1 2
r 0.15688 1 2 tcp 1040 ------- 0 0.0 3.0 2 3
+ 0.15688 2 3 tcp 1040 ------- 0 0.0 3.0 2 3
- 0.15688 2 3 tcp 1040 ------- 0 0.0 3.0 2 3
r 0.16688 2 3 tcp 1040 ------- 0 0.0 3.0 1 2
+ 0.16688 3 2 ack 40 ------- 0 3.0 0.0 1 4
- 0.16688 3 2 ack 40 ------- 0 3.0 0.0 1 4
r 0.1752 2 3 tcp 1040 ------- 0 0.0 3.0 2 3
+ 0.1752 3 2 ack 40 ------- 0 3.0 0.0 2 5
- 0.1752 3 2 ack 40 ------- 0 3.0 0.0 2 5
r 0.1772 3 2 ack 40 ------- 0 3.0 0.0 1 4
+ 0.1772 2 1 ack 40 ------- 0 3.0 0.0 1 4
- 0.1772 2 1 ack 40 ------- 0 3.0 0.0 1 4
r 0.18552 3 2 ack 40 ------- 0 3.0 0.0 2 5
+ 0.18552 2 1 ack 40 ------- 0 3.0 0.0 2 5
- 0.18552 2 1 ack 40 ------- 0 3.0 0.0 2 5
r 0.18752 2 1 ack 40 ------- 0 3.0 0.0 1 4
+ 0.18752 1 0 ack 40 ------- 0 3.0 0.0 1 4
- 0.18752 1 0 ack 40 ------- 0 3.0 0.0 1 4
r 0.19584 2 1 ack 40 ------- 0 3.0 0.0 2 5
+ 0.19584 1 0 ack 40 ------- 0 3.0 0.0 2 5
- 0.19584 1 0 ack 40 ------- 0 3.0 0.0 2 5
r 0.19784 1 0 ack 40 ------- 0 3.0 0.0 1 4
+ 0.19784 0 1 tcp 1040 ------- 0 0.0 3.0 3 6
- 0.19784 0 1 tcp 1040 ------- 0 0.0 3.0 3 6
+ 0.19784 0 1 tcp 1040 ------- 0 0.0 3.0 4 7
r 0.20616 1 0 ack 40 ------- 0 3.0 0.0 2 5
+ 0.20616 0 1 tcp 1040 ------- 0 0.0 3.0 5 8
+ 0.20616 0 1 tcp 1040 ------- 0 0.0 3.0 6 9
- 0.20616 0 1 tcp 1040 ------- 0 0.0 3.0 4 7
- 0.21448 0 1 tcp 1040 ------- 0 0.0 3.0 5 8
r 0.21616 0 1 tcp 1040 ------- 0 0.0 3.0 3 6
+ 0.21616 1 2 tcp 1040 ------- 0 0.0 3.0 3 6
- 0.21616 1 2 tcp 1040 ------- 0 0.0 3.0 3 6
- 0.2228 0 1 tcp 1040 ------- 0 0.0 3.0 6 9
r 0.22448 0 1 tcp 1040 ------- 0 0.0 3.0 4 7
+ 0.22448 1 2 tcp 1040 ------- 0 0.0 3.0 4 7
- 0.22448 1 2 tcp 1040 ------- 0 0.0 3.0 4 7
r 0.2328 0 1 tcp 1040 ------- 0 0.0 3.0 5 8
+ 0.2328 1 2 tcp 1040 ------- 0 0.0 3.0 5 8
- 0.2328 1 2 tcp 1040 ------- 0 0.0 3.0 5 8
r 0.23448 1 2 tcp 1040 ------- 0 0.0 3.0 3 6
+ 0.23448 2 3 tcp 1040 ------- 0 0.0 3.0 3 6
- 0.23448 2 3 tcp 1040 ------- 0 0.0 3.0 3 6
r 0.24112 0 1 tcp 1040 ------- 0 0.0 3.0 6 9
+ 0.24112 1 2 tcp 1040 ------- 0 0.0 3.0 6 9
- 0.24112 1 2 tcp 1040 ------- 0 0.0 3.0 6 9
r 0.2428 1 2 tcp 1040 ------- 0 0.0 3.0 4 7
+ 0.2428 2 3 tcp 1040 ------- 0 0.0 3.0 4 7
- 0.2428 2 3 tcp 1040 ------- 0 0.0 3.0 4 7
r 0.25112 1 2 tcp 1040 ------- 0 0.0 3.0 5 8
+ 0.25112 2 3 tcp 1040 ------- 0 0.0 3.0 5 8
- 0.25112 2 3 tcp 1040 ------- 0 0.0 3.0 5 8
r 0.2528 2 3 tcp 1040 ------- 0 0.0 3.0 3 6
+ 0.2528 3 2 ack 40 ------- 0 3.0 0.0 3 10
- 0.2528 3 2 ack 40 ------- 0 3.0 0.0 3 10
r 0.25944 1 2 tcp 1040 ------- 0 0.0 3.0 6 9
+ 0.25944 2 3 tcp 1040 ------- 0 0.0 3.0 6 9
- 0.25944 2 3 tcp 1040 ------- 0 0.0 3.0 6 9
r 0.26112 2 3 tcp 1040 ------- 0 0.0 3.0 4 7
+ 0.26112 3 2 ack 40 ------- 0 3.0 0.0 4 11
- 0.26112 3 2 ack 40 ------- 0 3.0 0.0 4 11
r 0.26312 3 2 ack 40 ------- 0 3.0 0.0 3 10
+ 0.26312 2 1 ack 40 ------- 0 3.0 0.0 3 10
- 0.26312 2 1 ack 40 ------- 0 3.0 0.0 3 10
r 0.26944 2 3 tcp 1040 ------- 0 0.0 3.0 5 8
+ 0.26944 3 2 ack 40 ------- 0 3.0 0.0 5 12
- 0.26944 3 2 ack 40 ------- 0 3.0 0.0 5 12
r 0.27144 3 2 ack 40 ------- 0 3.0 0.0 4 11
+ 0.27144 2 1 ack 40 ------- 0 3.0 0.0 4 11
- 0.27144 2 1 ack 40 ------- 0 3.0 0.0 4 11
r 0.27344 2 1 ack 40 ------- 0 3.0 0.0 3 10
+ 0.27344 1 0 ack 40 ------- 0 3.0 0.0 3 10
- 0.27344 1 0 ack 40 ------- 0 3.0 0.0 3 10
r 0.27776 2 3 tcp 1040 ------- 0 0.0 3.0 6 9
+ 0.27776 3 2 ack 40 ------- 0 3.0 0.0 6 13
- 0.27776 3 2 ack 40 ------- 0 3.0 0.0 6 13
r 0.27976 3 2 ack 40 ------- 0 3.0 0.0 5 12
+ 0.27976 2 1 ack 40 ------- 0 3.0 0.0 5 12
- 0.27976 2 1 ack 40 ------- 0 3.0 0.0 5 12
r 0.28176 2 1 ack 40 ------- 0 3.0 0.0 4 11
+ 0.28176 1 0 ack 40 ------- 0 3.0 0.0 4 11
- 0.28176 1 0 ack 40 ------- 0 3.0 0.0 4 11
r 0.28376 1 0 ack 40 ------- 0 3.0 0.0 3 10
+ 0.28376 0 1 tcp 1040 ------- 0 0.0 3.0 7 14
- 0.28376 0 1 tcp 1040 ------- 0 0.0 3.0 7 14
+ 0.28376 0 1 tcp 1040 ------- 0 0.0 3.0 8 15
r 0.28808 3 2 ack 40 ------- 0 3.0 0.0 6 13
+ 0.28808 2 1 ack 40 ------- 0 3.0 0.0 6 13
- 0.28808 2 1 ack 40 ------- 0 3.0 0.0 6 13
r 0.29008 2 1 ack 40 ------- 0 3.0 0.0 5 12
+ 0.29008 1 0 ack 40 ------- 0 3.0 0.0 5 12
- 0.29008 1 0 ack 40 ------- 0 3.0 0.0 5 12
r 0.29208 1 0 ack 40 ------- 0 3.0 0.0 4 11
+ 0.29208 0 1 tcp 1040 ------- 0 0.0 3.0 9 16
+ 0.29208 0 1 tcp 1040 ------- 0 0.0 3.0 10 17
- 0.29208 0 1 tcp 1040 ------- 0 0.0 3.0 8 15
r 0.2984 2 1 ack 40 ------- 0 3.0 0.0 6 13
+ 0.2984 1 0 ack 40 ------- 0 3.0 0.0 6 13
- 0.2984 1 0 ack 40 ------- 0 3.0 0.0 6 13
- 0.3004 0 1 tcp 1040 ------- 0 0.0 3.0 9 16
r 0.3004 1 0 ack 40 ------- 0 3.0 0.0 5 12
+ 0.3004 0 1 tcp 1040 ------- 0 0.0 3.0 11 18
+ 0.3004 0 1 tcp 1040 ------- 0 0.0 3.0 12 19
r 0.30208 0 1 tcp 1040 ------- 0 0.0 3.0 7 14
+ 0.30208 1 2 tcp 1040 ------- 0 0.0 3.0 7 14
- 0.30208 1 2 tcp 1040 ------- 0 0.0 3.0 7 14
- 0.30872 0 1 tcp 1040 ------- 0 0.0 3.0 10 17
r 0.30872 1 0 ack 40 ------- 0 3.0 0.0 6 13
+ 0.30872 0 1 tcp 1040 ------- 0 0.0 3.0 13 20
+ 0.30872 0 1 tcp 1040 ------- 0 0.0 3.0 14 21
r 0.3104 0 1 tcp 1040 ------- 0 0.0 3.0 8 15
+ 0.3104 1 2 tcp 1040 ------- 0 0.0 3.0 8 15
- 0.3104 1 2 tcp 1040 ------- 0 0.0 3.0 8 15
- 0.31704 0 1 tcp 1040 ------- 0 0.0 3.0 11 18
r 0.31872 0 1 tcp 1040 ------- 0 0.0 3.0 9 16
+ 0.31872 1 2 tcp 1040 ------- 0 0.0 3.0 9 16
- 0.31872 1 2 tcp 1040 ------- 0 0.0 3.0 9 16
r 0.3204 1 2 tcp 1040 ------- 0 0.0 3.0 7 14
+ 0.3204 2 3 tcp 1040 ------- 0 0.0 3.0 7 14
- 0.3204 2 3 tcp 1040 ------- 0 0.0 3.0 7 14
- 0.32536 0 1 tcp 1040 ------- 0 0.0 3.0 12 19
r 0.32704 0 1 tcp 1040 ------- 0 0.0 3.0 10 17
+ 0.32704 1 2 tcp 1040 ------- 0 0.0 3.0 10 17
- 0.32704 1 2 tcp 1040 ------- 0 0.0 3.0 10 17
r 0.32872 1 2 tcp 1040 ------- 0 0.0 3.0 8 15
+ 0.32872 2 3 tcp 1040 ------- 0 0.0 3.0 8 15
- 0.32872 2 3 tcp 1040 ------- 0 0.0 3.0 8 15
- 0.33368 0 1 tcp 1040 ------- 0 0.0 3.0 13 20
r 0.33536 0 1 tcp 1040 ------- 0 0.0 3.0 11 18
+ 0.33536 1 2 tcp 1040 ------- 0 0.0 3.0 11 18
- 0.33536 1 2 tcp 1040 ------- 0 0.0 3.0 11 18
r 0.33704 1 2 tcp 1040 ------- 0 0.0 3.0 9 16
+ 0.33704 2 3 tcp 1040 ------- 0 0.0 3.0 9 16
- 0.33704 2 3 tcp 1040 ------- 0 0.0 3.0 9 16
r 0.33872 2 3 tcp 1040 ------- 0 0.0 3.0 7 14
+ 0.33872 3 2 ack 40 ------- 0 3.0 0.0 7 22
- 0.33872 3 2 ack 40 ------- 0 3.0 0.0 7 22
- 0.342 0 1 tcp 1040 ------- 0 0.0 3.0 14 21
r 0.34368 0 1 tcp 1040 ------- 0 0.0 3.0 12 19
+ 0.34368 1 2 tcp 1040 ------- 0 0.0 3.0 12 19
- 0.34368 1 2 tcp 1040 ------- 0 0.0 3.0 12 19
r 0.34536 1 2 tcp 1040 ------- 0 0.0 3.0 10 17
+ 0.34536 2 3 tcp 1040 ------- 0 0.0 3.0 10 17
- 0.34536 2 3 tcp 1040 ------- 0 0.0 3.0 10 17
r 0.34704 2 3 tcp 1040 ------- 0 0.0 3.0 8 15
+ 0.34704 3 2 ack 40 ------- 0 3.0 0.0 8 23
- 0.34704 3 2 ack 40 ------- 0 3.0 0.0 8 23
r 0.34904 3 2 ack 40 ------- 0 3.0 0.0 7 22
+ 0.34904 2 1 ack 40 ------- 0 3.0 0.0 7 22
- 0.34904 2 1 ack 40 ------- 0 3.0 0.0 7 22
r 0.352 0 1 tcp 1040 ------- 0 0.0 3.0 13 20
+ 0.352 1 2 tcp 1040 ------- 0 0.0 3.0 13 20
- 0.352 1 2 tcp 1040 ------- 0 0.0 3.0 13 20
r 0.35368 1 2 tcp 1040 ------- 0 0.0 3.0 11 18
+ 0.35368 2 3 tcp 1040 ------- 0 0.0 3.0 11 18
- 0.35368 2 3 tcp 1040 ------- 0 0.0 3.0 11 18
r 0.35536 2 3 tcp 1040 ------- 0 0.0 3.0 9 16
+ 0.35536 3 2 ack 40 ------- 0 3.0 0.0 9 24
- 0.35536 3 2 ack 40 ------- 0 3.0 0.0 9 24
r 0.35736 3 2 ack 40 ------- 0 3.0 0.0 8 23
+ 0.35736 2 1 ack 40 ------- 0 3.0 0.0 8 23
- 0.35736 2 1 ack 40 ------- 0 3.0 0.0 8 23
r 0.35936 2 1 ack 40 ------- 0 3.0 0.0 7 22
+ 0.35936 1 0 ack 40 ------- 0 3.0 0.0 7 22
- 0.35936 1 0 ack 40 ------- 0 3.0 0.0 7 22
r 0.36032 0 1 tcp 1040 ------- 0 0.0 3.0 14 21
+ 0.36032 1 2 tcp 1040 ------- 0 0.0 3.0 14 21
- 0.36032 1 2 tcp 1040 ------- 0 0.0 3.0 14 21
r 0.362 1 2 tcp 1040 ------- 0 0.0 3.0 12 19
+ 0.362 2 3 tcp 1040 ------- 0 0.0 3.0 12 19
- 0.362 2 3 tcp 1040 ------- 0 0.0 3.0 12 19
r 0.36368 2 3 tcp 1040 ------- 0 0.0 3.0 10 17
+ 0.36368 3 2 ack 40 ------- 0 3.0 0.0 10 25
- 0.36368 3 2 ack 40 ------- 0 3.0 0.0 10 25
r 0.36568 3 2 ack 40 ------- 0 3.0 0.0 9 24
+ 0.36568 2 1 ack 40 ------- 0 3.0 0.0 9 24
- 0.36568 2 1 ack 40 ------- 0 3.0 0.0 9 24
r 0.36768 2 1 ack 40 ------- 0 3.0 0.0 8 23
+ 0.36768 1 0 ack 40 ------- 0 3.0 0.0 8 23
- 0.36768 1 0 ack 40 ------- 0 3.0 0.0 8 23
r 0.36968 1 0 ack 40 ------- 0 3.0 0.0 7 22
+ 0.36968 0 1 tcp 1040 ------- 0 0.0 3.0 15 26
- 0.36968 0 1 tcp 1040 ------- 0 0.0 3.0 15 26
+ 0.36968 0 1 tcp 1040 ------- 0 0.0 3.0 16 27
r 0.37032 1 2 tcp 1040 ------- 0 0.0 3.0 13 20
+ 0.37032 2 3 tcp 1040 ------- 0 0.0 3.0 13 20
- 0.37032 2 3 tcp 1040 ------- 0 0.0 3.0 13 20
r 0.372 2 3 tcp 1040 ------- 0 0.0 3.0 11 18
+ 0.372 3 2 ack 40 ------- 0 3.0 0.0 11 28
- 0.372 3 2 ack 40 ------- 0 3.0 0.0 11 28
r 0.374 3 2 ack 40 ------- 0 3.0 0.0 10 25
+ 0.374 2 1 ack 40 ------- 0 3.0 0.0 10 25
- 0.374 2 1 ack 40 ------- 0 3.0 0.0 10 25
r 0.376 2 1 ack 40 ------- 0 3.0 0.0 9 24
+ 0.376 1 0 ack 40 ------- 0 3.0 0.0 9 24
- 0.376 1 0 ack 40 ------- 0 3.0 0.0 9 24
r 0.378 1 0 ack 40 ------- 0 3.0 0.0 8 23
+ 0.378 0 1 tcp 1040 ------- 0 0.0 3.0 17 29
+ 0.378 0 1 tcp 1040 ------- 0 0.0 3.0 18 30
- 0.378 0 1 tcp 1040 ------- 0 0.0 3.0 16 27
r 0.37864 1 2 tcp 1040 ------- 0 0.0 3.0 14 21
+ 0.37864 2 3 tcp 1040 ------- 0 0.0 3.0 14 21
- 0.37864 2 3 tcp 1040 ------- 0 0.0 3.0 14 21
r 0.38032 2 3 tcp 1040 ------- 0 0.0 3.0 12 19
+ 0.38032 3 2 ack 40 ------- 0 3.0 0.0 12 31
- 0.38032 3 2 ack 40 ------- 0 3.0 0.0 12 31
r 0.38232 3 2 ack 40 ------- 0 3.0 0.0 11 28
+ 0.38232 2 1 ack 40 ------- 0 3.0 0.0 11 28
- 0.38232 2 1 ack 40 ------- 0 3.0 0.0 11 28
r 0.38432 2 1 ack 40 ------- 0 3.0 0.0 10 25
+ 0.38432 1 0 ack 40 ------- 0 3.0 0.0 10 25
- 0.38432 1 0 ack 40 ------- 0 3.0 0.0 10 25
r 0.38632 1 0 ack 40 ------- 0 3.0 0.0 9 24
+ 0.38632 0 1 tcp 1040 ------- 0 0.0 3.0 19 32
+ 0.38632 0 1 tcp 1040 ------- 0 0.0 3.0 20 33
- 0.38632 0 1 tcp 1040 ------- 0 0.0 3.0 17 29
r 0.388 0 1 tcp 1040 ------- 0 0.0 3.0 15 26
+ 0.388 1 2 tcp 1040 ------- 0 0.0 3.0 15 26
- 0.388 1 2 tcp 1040 ------- 0 0.0 3.0 15 26
r 0.38864 2 3 tcp 1040 ------- 0 0.0 3.0 13 20
+ 0.38864 3 2 ack 40 ------- 0 3.0 0.0 13 34
- 0.38864 3 2 ack 40 ------- 0 3.0 0.0 13 34
r 0.39064 3 2 ack 40 ------- 0 3.0 0.0 12 31
+ 0.39064 2 1 ack 40 ------- 0 3.0 0.0 12 31
- 0.39064 2 1 ack 40 ------- 0 3.0 0.0 12 31
r 0.39264 2 1 ack 40 ------- 0 3.0 0.0 11 28
+ 0.39264 1 0 ack 40 ------- 0 3.0 0.0 11 28
- 0.39264 1 0 ack 40 ------- 0 3.0 0.0 11 28
r 0.39464 1 0 ack 40 ------- 0 3.0 0.0 10 25
+ 0.39464 0 1 tcp 1040 ------- 0 0.0 3.0 21 35
+ 0.39464 0 1 tcp 1040 ------- 0 0.0 3.0 22 36
- 0.39464 0 1 tcp 1040 ------- 0 0.0 3.0 18 30
r 0.39632 0 1 tcp 1040 ------- 0 0.0 3.0 16 27
+ 0.39632 1 2 tcp 1040 ------- 0 0.0 3.0 16 27
- 0.39632 1 2 tcp 1040 ------- 0 0.0 3.0 16 27
r 0.39696 2 3 tcp 1040 ------- 0 0.0 3.0 14 21
+ 0.39696 3 2 ack 40 ------- 0 3.0 0.0 14 37
- 0.39696 3 2 ack 40 ------- 0 3.0 0.0 14 37
r 0.39896 3 2 ack 40 ------- 0 3.0 0.0 13 34
+ 0.39896 2 1 ack 40 ------- 0 3.0 0.0 13 34
- 0.39896 2 1 ack 40 ------- 0 3.0 0.0 13 34
r 0.40096 2 1 ack 40 ------- 0 3.0 0.0 12 31
+ 0.40096 1 0 ack 40 ------- 0 3.0 0.0 12 31
- 0.40096 1 0 ack 40 ------- 0 3.0 0.0 12 31
r 0.40296 1 0 ack 40 ------- 0 3.0 0.0 11 28
+ 0.40296 0 1 tcp 1040 ------- 0 0.0 3.0 23 38
+ 0.40296 0 1 tcp 1040 ------- 0 0.0 3.0 24 39
- 0.40296 0 1 tcp 1040 ------- 0 0.0 3.0 19 32
r 0.40464 0 1 tcp 1040 ------- 0 0.0 3.0 17 29
+ 0.40464 1 2 tcp 1040 ------- 0 0.0 3.0 17 29
- 0.40464 1 2 tcp 1040 ------- 0 0.0 3.0 17 29
r 0.40632 1 2 tcp 1040 ------- 0 0.0 3.0 15 26
+ 0.40632 2 3 tcp 1040 ------- 0 0.0 3.0 15 26
- 0.40632 2 3 tcp 1040 ------- 0 0.0 3.0 15 26
r 0.40728 3 2 ack 40 ------- 0 3.0 0.0 14 37
+ 0.40728 2 1 ack 40 ------- 0 3.0 0.0 14 37
- 0.40728 2 1 ack 40 ------- 0 3.0 0.0 14 37
r 0.40928 2 1 ack 40 ------- 0 3.0 0.0 13 34
+ 0.40928 1 0 ack 40 ------- 0 3.0 0.0 13 34
- 0.40928 1 0 ack 40 ------- 0 3.0 0.0 13 34
r 0.41128 1 0 ack 40 ------- 0 3.0 0.0 12 31
+ 0.41128 0 1 tcp 1040 ------- 0 0.0 3.0 25 40
+ 0.41128 0 1 tcp 1040 ------- 0 0.0 3.0 26 41
- 0.41128 0 1 tcp 1040 ------- 0 0.0 3.0 20 33
r 0.41296 0 1 tcp 1040 ------- 0 0.0 3.0 18 30
+ 0.41296 1 2 tcp 1040 ------- 0 0.0 3.0 18 30
- 0.41296 1 2 tcp 1040 ------- 0 0.0 3.0 18 30
r 0.41464 1 2 tcp 1040 ------- 0 0.0 3.0 16 27
+ 0.41464 2 3 tcp 1040 ------- 0 0.0 3.0 16 27
- 0.41464 2 3 tcp 1040 ------- 0 0.0 3.0 16 27
r 0.4176 2 1 ack 40 ------- 0 3.0 0.0 14 37
+ 0.4176 1 0 ack 40 ------- 0 3.0 0.0 14 37
- 0.4176 1 0 ack 40 ------- 0 3.0 0.0 14 37
r 0.4196 1 0 ack 40 ------- 0 3.0 0.0 13 34
+ 0.4196 0 1 tcp 1040 ------- 0 0.0 3.0 27 42
+ 0.4196 0 1 tcp 1040 ------- 0 0.0 3.0 28 43
- 0.4196 0 1 tcp 1040 ------- 0 0.0 3.0 21 35
r 0.42128 0 1 tcp 1040 ------- 0 0.0 3.0 19 32
+ 0.42128 1 2 tcp 1040 ------- 0 0.0 3.0 19 32
- 0.42128 1 2 tcp 1040 ------- 0 0.0 3.0 19 32
r 0.42296 1 2 tcp 1040 ------- 0 0.0 3.0 17 29
+ 0.42296 2 3 tcp 1040 ------- 0 0.0 3.0 17 29
- 0.42296 2 3 tcp 1040 ------- 0 0.0 3.0 17 29
r 0.42464 2 3 tcp 1040 ------- 0 0.0 3.0 15 26
+ 0.42464 3 2 ack 40 ------- 0 3.0 0.0 15 44
- 0.42464 3 2 ack 40 ------- 0 3.0 0.0 15 44
r 0.42792 1 0 ack 40 ------- 0 3.0 0.0 14 37
+ 0.42792 0 1 tcp 1040 ------- 0 0.0 3.0 29 45
+ 0.42792 0 1 tcp 1040 ------- 0 0.0 3.0 30 46
- 0.42792 0 1 tcp 1040 ------- 0 0.0 3.0 22 36
r 0.4296 0 1 tcp 1040 ------- 0 0.0 3.0 20 33
+ 0.4296 1 2 tcp 1040 ------- 0 0.0 3.0 20 33
- 0.4296 1 2 tcp 1040 ------- 0 0.0 3.0 20 33
r 0.43128 1 2 tcp 1040 ------- 0 0.0 3.0 18 30
+ 0.43128 2 3 tcp 1040 ------- 0 0.0 3.0 18 30
- 0.43128 2 3 tcp 1040 ------- 0 0.0 3.0 18 30
r 0.43296 2 3 tcp 1040 ------- 0 0.0 3.0 16 27
+ 0.43296 3 2 ack 40 ------- 0 3.0 0.0 16 47
- 0.43296 3 2 ack 40 ------- 0 3.0 0.0 16 47
r 0.43496 3 2 ack 40 ------- 0 3.0 0.0 15 44
+ 0.43496 2 1 ack 40 ------- 0 3.0 0.0 15 44
- 0.43496 2 1 ack 40 ------- 0 3.0 0.0 15 44
- 0.43624 0 1 tcp 1040 ------- 0 0.0 3.0 23 38
r 0.43792 0 1 tcp 1040 ------- 0 0.0 3.0 21 35
+ 0.43792 1 2 tcp 1040 ------- 0 0.0 3.0 21 35
- 0.43792 1 2 tcp 1040 ------- 0 0.0 3.0 21 35
r 0.4396 1 2 tcp 1040 ------- 0 0.0 3.0 19 32
+ 0.4396 2 3 tcp 1040 ------- 0 0.0 3.0 19 32
- 0.4396 2 3 tcp 1040 ------- 0 0.0 3.0 19 32
r 0.44128 2 3 tcp 1040 ------- 0 0.0 3.0 17 29
+ 0.44128 3 2 ack 40 ------- 0 3.0 0.0 17 48
- 0.44128 3 2 ack 40 ------- 0 3.0 0.0 17 48
r 0.44328 3 2 ack 40 ------- 0 3.0 0.0 16 47
+ 0.44328 2 1 ack 40 ------- 0 3.0 0.0 16 47
- 0.44328 2 1 ack 40 ------- 0 3.0 0.0 16 47
- 0.44456 0 1 tcp 1040 ------- 0 0.0 3.0 24 39
r 0.44528 2 1 ack 40 ------- 0 3.0 0.0 15 44
+ 0.44528 1 0 ack 40 ------- 0 3.0 0.0 15 44
- 0.44528 1 0 ack 40 ------- 0 3.0 0.0 15 44
r 0.44624 0 1 tcp 1040 ------- 0 0.0 3.0 22 36
+ 0.44624 1 2 tcp 1040 ------- 0 0.0 3.0 22 36
- 0.44624 1 2 tcp 1040 ------- 0 0.0 3.0 22 36
r 0.44792 1 2 tcp 1040 ------- 0 0.0 3.0 20 33
+ 0.44792 2 3 tcp 1040 ------- 0 0.0 3.0 20 33
- 0.44792 2 3 tcp 1040 ------- 0 0.0 3.0 20 33
r 0.4496 2 3 tcp 1040 ------- 0 0.0 3.0 18 30
+ 0.4496 3 2 ack 40 ------- 0 3.0 0.0 18 49
- 0.4496 3 2 ack 40 ------- 0 3.0 0.0 18 49
r 0.4516 3 2 ack 40 ------- 0 3.0 0.0 17 48
+ 0.4516 2 1 ack 40 ------- 0 3.0 0.0 17 48
- 0.4516 2 1 ack 40 ------- 0 3.0 0.0 17 48
- 0.45288 0 1 tcp 1040 ------- 0 0.0 3.0 25 40
r 0.4536 2 1 ack 40 ------- 0 3.0 0.0 16 47
+ 0.4536 1 0 ack 40 ------- 0 3.0 0.0 16 47
- 0.4536 1 0 ack 40 ------- 0 3.0 0.0 16 47
r 0.45456 0 1 tcp 1040 ------- 0 0.0 3.0 23 38
+ 0.45456 1 2 tcp 1040 ------- 0 0.0 3.0 23 38
- 0.45456 1 2 tcp 1040 ------- 0 0.0 3.0 23 38
r 0.4556 1 0 ack 40 ------- 0 3.0 0.0 15 44
+ 0.4556 0 1 tcp 1040 ------- 0 0.0 3.0 31 50
+ 0.4556 0 1 tcp 1040 ------- 0 0.0 3.0 32 51
r 0.45624 1 2 tcp 1040 ------- 0 0.0 3.0 21 35
+ 0.45624 2 3 tcp 1040 ------- 0 0.0 3.0 21 35
- 0.45624 2 3 tcp 1040 ------- 0 0.0 3.0 21 35
r 0.45792 2 3 tcp 1040 ------- 0 0.0 3.0 19 32
+ 0.45792 3 2 ack 40 ------- 0 3.0 0.0 19 52
- 0.45792 3 2 ack 40 ------- 0 3.0 0.0 19 52
r 0.45992 3 2 ack 40 ------- 0 3.0 0.0 18 49
+ 0.45992 2 1 ack 40 ------- 0 3.0 0.0 18 49
- 0.45992 2 1 ack 40 ------- 0 3.0 0.0 18 49
- 0.4612 0 1 tcp 1040 ------- 0 0.0 3.0 26 41
r 0.46192 2 1 ack 40 ------- 0 3.0 0.0 17 48
+ 0.46192 1 0 ack 40 ------- 0 3.0 0.0 17 48
- 0.46192 1 0 ack 40 ------- 0 3.0 0.0 17 48
r 0.46288 0 1 tcp 1040 ------- 0 0.0 3.0 24 39
+ 0.46288 1 2 tcp 1040 ------- 0 0.0 3.0 24 39
- 0.46288 1 2 tcp 1040 ------- 0 0.0 3.0 24 39
r 0.46392 1 0 ack 40 ------- 0 3.0 0.0 16 47
+ 0.46392 0 1 tcp 1040 ------- 0 0.0 3.0 33 53
+ 0.46392 0 1 tcp 1040 ------- 0 0.0 3.0 34 54
r 0.46456 1 2 tcp 1040 ------- 0 0.0 3.0 22 36
+ 0.46456 2 3 tcp 1040 ------- 0 0.0 3.0 22 36
- 0.46456 2 3 tcp 1040 ------- 0 0.0 3.0 22 36
r 0.46624 2 3 tcp 1040 ------- 0 0.0 3.0 20 33
+ 0.46624 3 2 ack 40 ------- 0 3.0 0.0 20 55
- 0.46624 3 2 ack 40 ------- 0 3.0 0.0 20 55
r 0.46824 3 2 ack 40 ------- 0 3.0 0.0 19 52
+ 0.46824 2 1 ack 40 ------- 0 3.0 0.0 19 52
- 0.46824 2 1 ack 40 ------- 0 3.0 0.0 19 52
- 0.46952 0 1 tcp 1040 ------- 0 0.0 3.0 27 42
r 0.47024 2 1 ack 40 ------- 0 3.0 0.0 18 49
+ 0.47024 1 0 ack 40 ------- 0 3.0 0.0 18 49
- 0.47024 1 0 ack 40 ------- 0 3.0 0.0 18 49
r 0.4712 0 1 tcp 1040 ------- 0 0.0 3.0 25 40
+ 0.4712 1 2 tcp 1040 ------- 0 0.0 3.0 25 40
- 0.4712 1 2 tcp 1040 ------- 0 0.0 3.0 25 40
r 0.47224 1 0 ack 40 ------- 0 3.0 0.0 17 48
+ 0.47224 0 1 tcp 1040 ------- 0 0.0 3.0 35 56
+ 0.47224 0 1 tcp 1040 ------- 0 0.0 3.0 36 57
r 0.47288 1 2 tcp 1040 ------- 0 0.0 3.0 23 38
+ 0.47288 2 3 tcp 1040 ------- 0 0.0 3.0 23 38
- 0.47288 2 3 tcp 1040 ------- 0 0.0 3.0 23 38
r 0.47456 2 3 tcp 1040 ------- 0 0.0 3.0 21 35
+ 0.47456 3 2 ack 40 ------- 0 3.0 0.0 21 58
- 0.47456 3 2 ack 40 ------- 0 3.0 0.0 21 58
r 0.47656 3 2 ack 40 ------- 0 3.0 0.0 20 55
+ 0.47656 2 1 ack 40 ------- 0 3.0 0.0 20 55
- 0.47656 2 1 ack 40 ------- 0 3.0 0.0 20 55
- 0.47784 0 1 tcp 1040 ------- 0 0.0 3.0 28 43
r 0.47856 2 1 ack 40 ------- 0 3.0 0.0 19 52
+ 0.47856 1 0 ack 40 ------- 0 3.0 0.0 19 52
- 0.47856 1 0 ack 40 ------- 0 3.0 0.0 19 52
r 0.47952 0 1 tcp 1040 ------- 0 0.0 3.0 26 41
+ 0.47952 1 2 tcp 1040 ------- 0 0.0 3.0 26 41
- 0.47952 1 2 tcp 1040 ------- 0 0.0 3.0 26 41
r 0.48056 1 0 ack 40 ------- 0 3.0 0.0 18 49
+ 0.48056 0 1 tcp 1040 ------- 0 0.0 3.0 37 59
+ 0.48056 0 1 tcp 1040 ------- 0 0.0 3.0 38 60
r 0.4812 1 2 tcp 1040 ------- 0 0.0 3.0 24 39
+ 0.4812 2 3 tcp 1040 ------- 0 0.0 3.0 24 39
- 0.4812 2 3 tcp 1040 ------- 0 0.0 3.0 24 39
r 0.48288 2 3 tcp 1040 ------- 0 0.0 3.0 22 36
+ 0.48288 3 2 ack 40 ------- 0 3.0 0.0 22 61
- 0.48288 3 2 ack 40 ------- 0 3.0 0.0 22 61
r 0.48488 3 2 ack 40 ------- 0 3.0 0.0 21 58
+ 0.48488 2 1 ack 40 ------- 0 3.0 0.0 21 58
- 0.48488 2 1 ack 40 ------- 0 3.0 0.0 21 58
- 0.48616 0 1 tcp 1040 ------- 0 0.0 3.0 29 45
r 0.48688 2 1 ack 40 ------- 0 3.0 0.0 20 55
+ 0.48688 1 0 ack 40 ------- 0 3.0 0.0 20 55
- 0.48688 1 0 ack 40 ------- 0 3.0 0.0 20 55
r 0.48784 0 1 tcp 1040 ------- 0 0.0 3.0 27 42
+ 0.48784 1 2 tcp 1040 ------- 0 0.0 3.0 27 42
- 0.48784 1 2 tcp 1040 ------- 0 0.0 3.0 27 42
r 0.48888 1 0 ack 40 ------- 0 3.0 0.0 19 52
+ 0.48888 0 1 tcp 1040 ------- 0 0.0 3.0 39 62
r 0.48952 1 2 tcp 1040 ------- 0 0.0 3.0 25 40
+ 0.48952 2 3 tcp 1040 ------- 0 0.0 3.0 25 40
- 0.48952 2 3 tcp 1040 ------- 0 0.0 3.0 25 40
r 0.4912 2 3 tcp 1040 ------- 0 0.0 3.0 23 38
+ 0.4912 3 2 ack 40 ------- 0 3.0 0.0 23 63
- 0.4912 3 2 ack 40 ------- 0 3.0 0.0 23 63
r 0.4932 3 2 ack 40 ------- 0 3.0 0.0 22 61
+ 0.4932 2 1 ack 40 ------- 0 3.0 0.0 22 61
- 0.4932 2 1 ack 40 ------- 0 3.0 0.0 22 61
- 0.49448 0 1 tcp 1040 ------- 0 0.0 3.0 30 46
r 0.4952 2 1 ack 40 ------- 0 3.0 0.0 21 58
+ 0.4952 1 0 ack 40 ------- 0 3.0 0.0 21 58
- 0.4952 1 0 ack 40 ------- 0 3.0 0.0 21 58
r 0.49616 0 1 tcp 1040 ------- 0 0.0 3.0 28 43
+ 0.49616 1 2 tcp 1040 ------- 0 0.0 3.0 28 43
- 0.49616 1 2 tcp 1040 ------- 0 0.0 3.0 28 43
r 0.4972 1 0 ack 40 ------- 0 3.0 0.0 20 55
+ 0.4972 0 1 tcp 1040 ------- 0 0.0 3.0 40 64
r 0.49784 1 2 tcp 1040 ------- 0 0.0 3.0 26 41
+ 0.49784 2 3 tcp 1040 ------- 0 0.0 3.0 26 41
- 0.49784 2 3 tcp 1040 ------- 0 0.0 3.0 26 41
r 0.49952 2 3 tcp 1040 ------- 0 0.0 3.0 24 39
+ 0.49952 3 2 ack 40 ------- 0 3.0 0.0 24 65
- 0.49952 3 2 ack 40 ------- 0 3.0 0.0 24 65
r 0.50152 3 2 ack 40 ------- 0 3.0 0.0 23 63
+ 0.50152 2 1 ack 40 ------- 0 3.0 0.0 23 63
- 0.50152 2 1 ack 40 ------- 0 3.0 0.0 23 63
- 0.5028 0 1 tcp 1040 ------- 0 0.0 3.0 31 50
r 0.50352 2 1 ack 40 ------- 0 3.0 0.0 22 61
+ 0.50352 1 0 ack 40 ------- 0 3.0 0.0 22 61
- 0.50352 1 0 ack 40 ------- 0 3.0 0.0 22 61
r 0.50448 0 1 tcp 1040 ------- 0 0.0 3.0 29 45
+ 0.50448 1 2 tcp 1040 ------- 0 0.0 3.0 29 45
- 0.50448 1 2 tcp 1040 ------- 0 0.0 3.0 29 45
r 0.50552 1 0 ack 40 ------- 0 3.0 0.0 21 58
+ 0.50552 0 1 tcp 1040 ------- 0 0.0 3.0 41 66
r 0.50616 1 2 tcp 1040 ------- 0 0.0 3.0 27 42
+ 0.50616 2 3 tcp 1040 ------- 0 0.0 3.0 27 42
- 0.50616 2 3 tcp 1040 ------- 0 0.0 3.0 27 42
r 0.50784 2 3 tcp 1040 ------- 0 0.0 3.0 25 40
+ 0.50784 3 2 ack 40 ------- 0 3.0 0.0 25 67
- 0.50784 3 2 ack 40 ------- 0 3.0 0.0 25 67
r 0.50984 3 2 ack 40 ------- 0 3.0 0.0 24 65
+ 0.50984 2 1 ack 40 ------- 0 3.0 0.0 24 65
- 0.50984 2 1 ack 40 ------- 0 3.0 0.0 24 65
- 0.51112 0 1 tcp 1040 ------- 0 0.0 3.0 32 51
r 0.51184 2 1 ack 40 ------- 0 3.0 0.0 23 63
+ 0.51184 1 0 ack 40 ------- 0 3.0 0.0 23 63
- 0.51184 1 0 ack 40 ------- 0 3.0 0.0 23 63
r 0.5128 0 1 tcp 1040 ------- 0 0.0 3.0 30 46
+ 0.5128 1 2 tcp 1040 ------- 0 0.0 3.0 30 46
- 0.5128 1 2 tcp 1040 ------- 0 0.0 3.0 30 46
r 0.51384 1 0 ack 40 ------- 0 3.0 0.0 22 61
+ 0.51384 0 1 tcp 1040 ------- 0 0.0 3.0 42 68
r 0.51448 1 2 tcp 1040 ------- 0 0.0 3.0 28 43
+ 0.51448 2 3 tcp 1040 ------- 0 0.0 3.0 28 43
- 0.51448 2 3 tcp 1040 ------- 0 0.0 3.0 28 43
r 0.51616 2 3 tcp 1040 ------- 0 0.0 3.0 26 41
+ 0.51616 3 2 ack 40 ------- 0 3.0 0.0 26 69
- 0.51616 3 2 ack 40 ------- 0 3.0 0.0 26 69
r 0.51816 3 2 ack 40 ------- 0 3.0 0.0 25 67
+ 0.51816 2 1 ack 40 ------- 0 3.0 0.0 25 67
- 0.51816 2 1 ack 40 ------- 0 3.0 0.0 25 67
- 0.51944 0 1 tcp 1040 ------- 0 0.0 3.0 33 53
r 0.52016 2 1 ack 40 ------- 0 3.0 0.0 24 65
+ 0.52016 1 0 ack 40 ------- 0 3.0 0.0 24 65
- 0.52016 1 0 ack 40 ------- 0 3.0 0.0 24 65
r 0.52112 0 1 tcp 1040 ------- 0 0.0 3.0 31 50
+ 0.52112 1 2 tcp 1040 ------- 0 0.0 3.0 31 50
- 0.52112 1 2 tcp 1040 ------- 0 0.0 3.0 31 50
r 0.52216 1 0 ack 40 ------- 0 3.0 0.0 23 63
+ 0.52216 0 1 tcp 1040 ------- 0 0.0 3.0 43 70
r 0.5228 1 2 tcp 1040 ------- 0 0.0 3.0 29 45
+ 0.5228 2 3 tcp 1040 ------- 0 0.0 3.0 29 45
- 0.5228 2 3 tcp 1040 ------- 0 0.0 3.0 29 45
r 0.52448 2 3 tcp 1040 ------- 0 0.0 3.0 27 42
+ 0.52448 3 2 ack 40 ------- 0 3.0 0.0 27 71
- 0.52448 3 2 ack 40 ------- 0 3.0 0.0 27 71
r 0.52648 3 2 ack 40 ------- 0 3.0 0.0 26 69
+ 0.52648 2 1 ack 40 ------- 0 3.0 0.0 26 69
- 0.52648 2 1 ack 40 ------- 0 3.0 0.0 26 69
- 0.52776 0 1 tcp 1040 ------- 0 0.0 3.0 34 54
r 0.52848 2 1 ack 40 ------- 0 3.0 0.0 25 67
+ 0.52848 1 0 ack 40 ------- 0 3.0 0.0 25 67
- 0.52848 1 0 ack 40 ------- 0 3.0 0.0 25 67
r 0.52944 0 1 tcp 1040 ------- 0 0.0 3.0 32 51
+ 0.52944 1 2 tcp 1040 ------- 0 0.0 3.0 32 51
- 0.52944 1 2 tcp 1040 ------- 0 0.0 3.0 32 51
r 0.53048 1 0 ack 40 ------- 0 3.0 0.0 24 65
+ 0.53048 0 1 tcp 1040 ------- 0 0.0 3.0 44 72
r 0.53112 1 2 tcp 1040 ------- 0 0.0 3.0 30 46
+ 0.53112 2 3 tcp 1040 ------- 0 0.0 3.0 30 46
- 0.53112 2 3 tcp 1040 ------- 0 0.0 3.0 30 46
r 0.5328 2 3 tcp 1040 ------- 0 0.0 3.0 28 43
+ 0.5328 3 2 ack 40 ------- 0 3.0 0.0 28 73
- 0.5328 3 2 ack 40 ------- 0 3.0 0.0 28 73
r 0.5348 3 2 ack 40 ------- 0 3.0 0.0 27 71
+ 0.5348 2 1 ack 40 ------- 0 3.0 0.0 27 71
- 0.5348 2 1 ack 40 ------- 0 3.0 0.0 27 71
- 0.53608 0 1 tcp 1040 ------- 0 0.0 3.0 35 56
r 0.5368 2 1 ack 40 ------- 0 3.0 0.0 26 69
+ 0.5368 1 0 ack 40 ------- 0 3.0 0.0 26 69
- 0.5368 1 0 ack 40 ------- 0 3.0 0.0 26 69
r 0.53776 0 1 tcp 1040 ------- 0 0.0 3.0 33 53
+ 0.53776 1 2 tcp 1040 ------- 0 0.0 3.0 33 53
- 0.53776 1 2 tcp 1040 ------- 0 0.0 3.0 33 53
r 0.5388 1 0 ack 40 ------- 0 3.0 0.0 25 67
+ 0.5388 0 1 tcp 1040 ------- 0 0.0 3.0 45 74
r 0.53944 1 2 tcp 1040 ------- 0 0.0 3.0 31 50
+ 0.53944 2 3 tcp 1040 ------- 0 0.0 3.0 31 50
- 0.53944 2 3 tcp 1040 ------- 0 0.0 3.0 31 50
r 0.54112 2 3 tcp 1040 ------- 0 0.0 3.0 29 45
+ 0.54112 3 2 ack 40 ------- 0 3.0 0.0 29 75
- 0.54112 3 2 ack 40 ------- 0 3.0 0.0 29 75
r 0.54312 3 2 ack 40 ------- 0 3.0 0.0 28 73
+ 0.54312 2 1 ack 40 ------- 0 3.0 0.0 28 73
- 0.54312 2 1 ack 40 ------- 0 3.0 0.0 28 73
- 0.5444 0 1 tcp 1040 ------- 0 0.0 3.0 36 57
r 0.54512 2 1 ack 40 ------- 0 3.0 0.0 27 71
+ 0.54512 1 0 ack 40 ------- 0 3.0 0.0 27 71
- 0.54512 1 0 ack 40 ------- 0 3.0 0.0 27 71
r 0.54608 0 1 tcp 1040 ------- 0 0.0 3.0 34 54
+ 0.54608 1 2 tcp 1040 ------- 0 0.0 3.0 34 54
- 0.54608 1 2 tcp 1040 ------- 0 0.0 3.0 34 54
r 0.54712 1 0 ack 40 ------- 0 3.0 0.0 26 69
+ 0.54712 0 1 tcp 1040 ------- 0 0.0 3.0 46 76
r 0.54776 1 2 tcp 1040 ------- 0 0.0 3.0 32 51
+ 0.54776 2 3 tcp 1040 ------- 0 0.0 3.0 32 51
- 0.54776 2 3 tcp 1040 ------- 0 0.0 3.0 32 51
r 0.54944 2 3 tcp 1040 ------- 0 0.0 3.0 30 46
+ 0.54944 3 2 ack 40 ------- 0 3.0 0.0 30 77
- 0.54944 3 2 ack 40 ------- 0 3.0 0.0 30 77
r 0.55144 3 2 ack 40 ------- 0 3.0 0.0 29 75
+ 0.55144 2 1 ack 40 ------- 0 3.0 0.0 29 75
- 0.55144 2 1 ack 40 ------- 0 3.0 0.0 29 75
- 0.55272 0 1 tcp 1040 ------- 0 0.0 3.0 37 59
r 0.55344 2 1 ack 40 ------- 0 3.0 0.0 28 73
+ 0.55344 1 0 ack 40 ------- 0 3.0 0.0 28 73
- 0.55344 1 0 ack 40 ------- 0 3.0 0.0 28 73
r 0.5544 0 1 tcp 1040 ------- 0 0.0 3.0 35 56
+ 0.5544 1 2 tcp 1040 ------- 0 0.0 3.0 35 56
- 0.5544 1 2 tcp 1040 ------- 0 0.0 3.0 35 56
r 0.55544 1 0 ack 40 ------- 0 3.0 0.0 27 71
+ 0.55544 0 1 tcp 1040 ------- 0 0.0 3.0 47 78
r 0.55608 1 2 tcp 1040 ------- 0 0.0 3.0 33 53
+ 0.55608 2 3 tcp 1040 ------- 0 0.0 3.0 33 53
- 0.55608 2 3 tcp 1040 ------- 0 0.0 3.0 33 53
r 0.55776 2 3 tcp 1040 ------- 0 0.0 3.0 31 50
+ 0.55776 3 2 ack 40 ------- 0 3.0 0.0 31 79
- 0.55776 3 2 ack 40 ------- 0 3.0 0.0 31 79
r 0.55976 3 2 ack 40 ------- 0 3.0 0.0 30 77
+ 0.55976 2 1 ack 40 ------- 0 3.0 0.0 30 77
- 0.55976 2 1 ack 40 ------- 0 3.0 0.0 30 77
- 0.56104 0 1 tcp 1040 ------- 0 0.0 3.0 38 60
r 0.56176 2 1 ack 40 ------- 0 3.0 0.0 29 75
+ 0.56176 1 0 ack 40 ------- 0 3.0 0.0 29 75
- 0.56176 1 0 ack 40 ------- 0 3.0 0.0 29 75
r 0.56272 0 1 tcp 1040 ------- 0 0.0 3.0 36 57
+ 0.56272 1 2 tcp 1040 ------- 0 0.0 3.0 36 57
- 0.56272 1 2 tcp 1040 ------- 0 0.0 3.0 36 57
r 0.56376 1 0 ack 40 ------- 0 3.0 0.0 28 73
+ 0.56376 0 1 tcp 1040 ------- 0 0.0 3.0 48 80
r 0.5644 1 2 tcp 1040 ------- 0 0.0 3.0 34 54
+ 0.5644 2 3 tcp 1040 ------- 0 0.0 3.0 34 54
- 0.5644 2 3 tcp 1040 ------- 0 0.0 3.0 34 54
r 0.56608 2 3 tcp 1040 ------- 0 0.0 3.0 32 51
+ 0.56608 3 2 ack 40 ------- 0 3.0 0.0 32 81
- 0.56608 3 2 ack 40 ------- 0 3.0 0.0 32 81
r 0.56808 3 2 ack 40 ------- 0 3.0 0.0 31 79
+ 0.56808 2 1 ack 40 ------- 0 3.0 0.0 31 79
- 0.56808 2 1 ack 40 ------- 0 3.0 0.0 31 79
- 0.56936 0 1 tcp 1040 ------- 0 0.0 3.0 39 62
r 0.57008 2 1 ack 40 ------- 0 3.0 0.0 30 77
+ 0.57008 1 0 ack 40 ------- 0 3.0 0.0 30 77
- 0.57008 1 0 ack 40 ------- 0 3.0 0.0 30 77
r 0.57104 0 1 tcp 1040 ------- 0 0.0 3.0 37 59
+ 0.57104 1 2 tcp 1040 ------- 0 0.0 3.0 37 59
- 0.57104 1 2 tcp 1040 ------- 0 0.0 3.0 37 59
r 0.57208 1 0 ack 40 ------- 0 3.0 0.0 29 75
+ 0.57208 0 1 tcp 1040 ------- 0 0.0 3.0 49 82
r 0.57272 1 2 tcp 1040 ------- 0 0.0 3.0 35 56
+ 0.57272 2 3 tcp 1040 ------- 0 0.0 3.0 35 56
- 0.57272 2 3 tcp 1040 ------- 0 0.0 3.0 35 56
r 0.5744 2 3 tcp 1040 ------- 0 0.0 3.0 33 53
+ 0.5744 3 2 ack 40 ------- 0 3.0 0.0 33 83
- 0.5744 3 2 ack 40 ------- 0 3.0 0.0 33 83
r 0.5764 3 2 ack 40 ------- 0 3.0 0.0 32 81
+ 0.5764 2 1 ack 40 ------- 0 3.0 0.0 32 81
- 0.5764 2 1 ack 40 ------- 0 3.0 0.0 32 81
- 0.57768 0 1 tcp 1040 ------- 0 0.0 3.0 40 64
r 0.5784 2 1 ack 40 ------- 0 3.0 0.0 31 79
+ 0.5784 1 0 ack 40 ------- 0 3.0 0.0 31 79
- 0.5784 1 0 ack 40 ------- 0 3.0 0.0 31 79
r 0.57936 0 1 tcp 1040 ------- 0 0.0 3.0 38 60
+ 0.57936 1 2 tcp 1040 ------- 0 0.0 3.0 38 60
- 0.57936 1 2 tcp 1040 ------- 0 0.0 3.0 38 60
r 0.5804 1 0 ack 40 ------- 0 3.0 0.0 30 77
+ 0.5804 0 1 tcp 1040 ------- 0 0.0 3.0 50 84
r 0.58104 1 2 tcp 1040 ------- 0 0.0 3.0 36 57
+ 0.58104 2 3 tcp 1040 ------- 0 0.0 3.0 36 57
- 0.58104 2 3 tcp 1040 ------- 0 0.0 3.0 36 57
r 0.58272 2 3 tcp 1040 ------- 0 0.0 3.0 34 54
+ 0.58272 3 2 ack 40 ------- 0 3.0 0.0 34 85
- 0.58272 3 2 ack 40 ------- 0 3.0 0.0 34 85
r 0.58472 3 2 ack 40 ------- 0 3.0 0.0 33 83
+ 0.58472 2 1 ack 40 ------- 0 3.0 0.0 33 83
- 0.58472 2 1 ack 40 ------- 0 3.0 0.0 33 83
- 0.586 0 1 tcp 1040 ------- 0 0.0 3.0 41 66
r 0.58672 2 1 ack 40 ------- 0 3.0 0.0 32 81
+ 0.58672 1 0 ack 40 ------- 0 3.0 0.0 32 81
- 0.58672 1 0 ack 40 ------- 0 3.0 0.0 32 81
r 0.58768 0 1 tcp 1040 ------- 0 0.0 3.0 39 62
+ 0.58768 1 2 tcp 1040 ------- 0 0.0 3.0 39 62